LAMMPS data file via write_data, version 19 Nov 2024, timestep = 0, units = metal

256 atoms
1 atom types

0 14.074341706474724 xlo xhi
0 14.074341706474723 ylo yhi
0 14.074341706474724 zlo zhi

Masses

1 58.69

Atoms # atomic

1 1 0 0 0 0 0 0
2 1 3.5185854266186807 0 2.5e-16 0 0 0
3 1 7.037170853237361 0 5e-16 0 0 0
4 1 10.555756279856041 0 7.500000000000001e-16 0 0 0
5 1 5e-16 3.5185854266186807 2.5e-16 0 0 0
6 1 3.518585426618681 3.5185854266186807 5e-16 0 0 0
7 1 7.037170853237362 3.5185854266186807 7.500000000000001e-16 0 0 0
8 1 10.555756279856043 3.5185854266186807 1e-15 0 0 0
9 1 1e-15 7.037170853237361 5e-16 0 0 0
10 1 3.5185854266186816 7.037170853237361 7.500000000000001e-16 0 0 0
11 1 7.037170853237362 7.037170853237361 1e-15 0 0 0
12 1 10.555756279856043 7.037170853237361 1.2500000000000002e-15 0 0 0
13 1 1.5000000000000001e-15 10.555756279856041 7.500000000000001e-16 0 0 0
14 1 3.518585426618682 10.555756279856041 1e-15 0 0 0
15 1 7.037170853237363 10.555756279856041 1.2500000000000002e-15 0 0 0
16 1 10.555756279856043 10.555756279856041 1.5000000000000001e-15 0 0 0
17 1 0 0 3.5185854266186807 0 0 0
18 1 3.5185854266186807 0 3.518585426618681 0 0 0
19 1 7.037170853237361 0 3.518585426618681 0 0 0
20 1 10.555756279856041 0 3.5185854266186816 0 0 0
21 1 5e-16 3.5185854266186807 3.518585426618681 0 0 0
22 1 3.518585426618681 3.5185854266186807 3.518585426618681 0 0 0
23 1 7.037170853237362 3.5185854266186807 3.5185854266186816 0 0 0
24 1 10.555756279856043 3.5185854266186807 3.5185854266186816 0 0 0
25 1 1e-15 7.037170853237361 3.518585426618681 0 0 0
26 1 3.5185854266186816 7.037170853237361 3.5185854266186816 0 0 0
27 1 7.037170853237362 7.037170853237361 3.5185854266186816 0 0 0
28 1 10.555756279856043 7.037170853237361 3.518585426618682 0 0 0
29 1 1.5000000000000001e-15 10.555756279856041 3.5185854266186816 0 0 0
30 1 3.518585426618682 10.555756279856041 3.5185854266186816 0 0 0
31 1 7.037170853237363 10.555756279856041 3.518585426618682 0 0 0
32 1 10.555756279856043 10.555756279856041 3.518585426618682 0 0 0
33 1 0 0 7.037170853237361 0 0 0
34 1 3.5185854266186807 0 7.037170853237361 0 0 0
35 1 7.037170853237361 0 7.037170853237362 0 0 0
36 1 10.555756279856041 0 7.037170853237362 0 0 0
37 1 5e-16 3.5185854266186807 7.037170853237361 0 0 0
38 1 3.518585426618681 3.5185854266186807 7.037170853237362 0 0 0
39 1 7.037170853237362 3.5185854266186807 7.037170853237362 0 0 0
40 1 10.555756279856043 3.5185854266186807 7.037170853237362 0 0 0
41 1 1e-15 7.037170853237361 7.037170853237362 0 0 0
42 1 3.5185854266186816 7.037170853237361 7.037170853237362 0 0 0
43 1 7.037170853237362 7.037170853237361 7.037170853237362 0 0 0
44 1 10.555756279856043 7.037170853237361 7.037170853237362 0 0 0
45 1 1.5000000000000001e-15 10.555756279856041 7.037170853237362 0 0 0
46 1 3.518585426618682 10.555756279856041 7.037170853237362 0 0 0
47 1 7.037170853237363 10.555756279856041 7.037170853237362 0 0 0
48 1 10.555756279856043 10.555756279856041 7.037170853237363 0 0 0
49 1 0 0 10.555756279856041 0 0 0
50 1 3.5185854266186807 0 10.555756279856043 0 0 0
51 1 7.037170853237361 0 10.555756279856043 0 0 0
52 1 10.555756279856041 0 10.555756279856043 0 0 0
53 1 5e-16 3.5185854266186807 10.555756279856043 0 0 0
54 1 3.518585426618681 3.5185854266186807 10.555756279856043 0 0 0
55 1 7.037170853237362 3.5185854266186807 10.555756279856043 0 0 0
56 1 10.555756279856043 3.5185854266186807 10.555756279856043 0 0 0
57 1 1e-15 7.037170853237361 10.555756279856043 0 0 0
58 1 3.5185854266186816 7.037170853237361 10.555756279856043 0 0 0
59 1 7.037170853237362 7.037170853237361 10.555756279856043 0 0 0
60 1 10.555756279856043 7.037170853237361 10.555756279856043 0 0 0
61 1 1.5000000000000001e-15 10.555756279856041 10.555756279856043 0 0 0
62 1 3.518585426618682 10.555756279856041 10.555756279856043 0 0 0
63 1 7.037170853237363 10.555756279856041 10.555756279856043 0 0 0
64 1 10.555756279856043 10.555756279856041 10.555756279856043 0 0 0
65 1 2.5e-16 1.7592927133093403 1.7592927133093406 0 0 0
66 1 3.518585426618681 1.7592927133093403 1.7592927133093408 0 0 0
67 1 7.037170853237361 1.7592927133093403 1.759292713309341 0 0 0
68 1 10.555756279856043 1.7592927133093403 1.7592927133093412 0 0 0
69 1 7.500000000000001e-16 5.277878139928021 1.7592927133093408 0 0 0
70 1 3.5185854266186816 5.277878139928021 1.759292713309341 0 0 0
71 1 7.037170853237362 5.277878139928021 1.7592927133093412 0 0 0
72 1 10.555756279856043 5.277878139928021 1.7592927133093414 0 0 0
73 1 1.2500000000000002e-15 8.796463566546702 1.759292713309341 0 0 0
74 1 3.518585426618682 8.796463566546702 1.7592927133093412 0 0 0
75 1 7.037170853237362 8.796463566546702 1.7592927133093414 0 0 0
76 1 10.555756279856043 8.796463566546702 1.7592927133093417 0 0 0
77 1 1.75e-15 12.315048993165382 1.7592927133093412 0 0 0
78 1 3.5185854266186825 12.315048993165382 1.7592927133093414 0 0 0
79 1 7.037170853237363 12.315048993165382 1.7592927133093417 0 0 0
80 1 10.555756279856043 12.315048993165382 1.759292713309342 0 0 0
81 1 2.5e-16 1.7592927133093403 5.2778781399280215 0 0 0
82 1 3.518585426618681 1.7592927133093403 5.2778781399280215 0 0 0
83 1 7.037170853237361 1.7592927133093403 5.2778781399280215 0 0 0
84 1 10.555756279856043 1.7592927133093403 5.2778781399280215 0 0 0
85 1 7.500000000000001e-16 5.277878139928021 5.2778781399280215 0 0 0
86 1 3.5185854266186816 5.277878139928021 5.2778781399280215 0 0 0
87 1 7.037170853237362 5.277878139928021 5.2778781399280215 0 0 0
88 1 10.555756279856043 5.277878139928021 5.277878139928022 0 0 0
89 1 1.2500000000000002e-15 8.796463566546702 5.2778781399280215 0 0 0
90 1 3.518585426618682 8.796463566546702 5.2778781399280215 0 0 0
91 1 7.037170853237362 8.796463566546702 5.277878139928022 0 0 0
92 1 10.555756279856043 8.796463566546702 5.277878139928022 0 0 0
93 1 1.75e-15 12.315048993165382 5.2778781399280215 0 0 0
94 1 3.5185854266186825 12.315048993165382 5.277878139928022 0 0 0
95 1 7.037170853237363 12.315048993165382 5.277878139928022 0 0 0
96 1 10.555756279856043 12.315048993165382 5.277878139928022 0 0 0
97 1 2.5e-16 1.7592927133093403 8.796463566546702 0 0 0
98 1 3.518585426618681 1.7592927133093403 8.796463566546702 0 0 0
99 1 7.037170853237361 1.7592927133093403 8.796463566546702 0 0 0
100 1 10.555756279856043 1.7592927133093403 8.796463566546702 0 0 0
101 1 7.500000000000001e-16 5.277878139928021 8.796463566546702 0 0 0
102 1 3.5185854266186816 5.277878139928021 8.796463566546702 0 0 0
103 1 7.037170853237362 5.277878139928021 8.796463566546702 0 0 0
104 1 10.555756279856043 5.277878139928021 8.796463566546702 0 0 0
105 1 1.2500000000000002e-15 8.796463566546702 8.796463566546702 0 0 0
106 1 3.518585426618682 8.796463566546702 8.796463566546702 0 0 0
107 1 7.037170853237362 8.796463566546702 8.796463566546702 0 0 0
108 1 10.555756279856043 8.796463566546702 8.796463566546704 0 0 0
109 1 1.75e-15 12.315048993165382 8.796463566546702 0 0 0
110 1 3.5185854266186825 12.315048993165382 8.796463566546702 0 0 0
111 1 7.037170853237363 12.315048993165382 8.796463566546704 0 0 0
112 1 10.555756279856043 12.315048993165382 8.796463566546704 0 0 0
113 1 2.5e-16 1.7592927133093403 12.315048993165382 0 0 0
114 1 3.518585426618681 1.7592927133093403 12.315048993165382 0 0 0
115 1 7.037170853237361 1.7592927133093403 12.315048993165384 0 0 0
116 1 10.555756279856043 1.7592927133093403 12.315048993165384 0 0 0
117 1 7.500000000000001e-16 5.277878139928021 12.315048993165382 0 0 0
118 1 3.5185854266186816 5.277878139928021 12.315048993165384 0 0 0
119 1 7.037170853237362 5.277878139928021 12.315048993165384 0 0 0
120 1 10.555756279856043 5.277878139928021 12.315048993165384 0 0 0
121 1 1.2500000000000002e-15 8.796463566546702 12.315048993165384 0 0 0
122 1 3.518585426618682 8.796463566546702 12.315048993165384 0 0 0
123 1 7.037170853237362 8.796463566546702 12.315048993165384 0 0 0
124 1 10.555756279856043 8.796463566546702 12.315048993165384 0 0 0
125 1 1.75e-15 12.315048993165382 12.315048993165384 0 0 0
126 1 3.5185854266186825 12.315048993165382 12.315048993165384 0 0 0
127 1 7.037170853237363 12.315048993165382 12.315048993165384 0 0 0
128 1 10.555756279856043 12.315048993165382 12.315048993165384 0 0 0
129 1 1.7592927133093403 0 1.7592927133093406 0 0 0
130 1 5.277878139928021 0 1.7592927133093408 0 0 0
131 1 8.796463566546702 0 1.759292713309341 0 0 0
132 1 12.315048993165382 0 1.7592927133093412 0 0 0
133 1 1.7592927133093408 3.5185854266186807 1.7592927133093408 0 0 0
134 1 5.2778781399280215 3.5185854266186807 1.759292713309341 0 0 0
135 1 8.796463566546702 3.5185854266186807 1.7592927133093412 0 0 0
136 1 12.315048993165384 3.5185854266186807 1.7592927133093414 0 0 0
137 1 1.7592927133093414 7.037170853237361 1.759292713309341 0 0 0
138 1 5.277878139928022 7.037170853237361 1.7592927133093412 0 0 0
139 1 8.796463566546702 7.037170853237361 1.7592927133093414 0 0 0
140 1 12.315048993165384 7.037170853237361 1.7592927133093417 0 0 0
141 1 1.759292713309342 10.555756279856041 1.7592927133093412 0 0 0
142 1 5.277878139928022 10.555756279856041 1.7592927133093414 0 0 0
143 1 8.796463566546704 10.555756279856041 1.7592927133093417 0 0 0
144 1 12.315048993165384 10.555756279856041 1.759292713309342 0 0 0
145 1 1.7592927133093403 0 5.2778781399280215 0 0 0
146 1 5.277878139928021 0 5.2778781399280215 0 0 0
147 1 8.796463566546702 0 5.2778781399280215 0 0 0
148 1 12.315048993165382 0 5.2778781399280215 0 0 0
149 1 1.7592927133093408 3.5185854266186807 5.2778781399280215 0 0 0
150 1 5.2778781399280215 3.5185854266186807 5.2778781399280215 0 0 0
151 1 8.796463566546702 3.5185854266186807 5.2778781399280215 0 0 0
152 1 12.315048993165384 3.5185854266186807 5.277878139928022 0 0 0
153 1 1.7592927133093414 7.037170853237361 5.2778781399280215 0 0 0
154 1 5.277878139928022 7.037170853237361 5.2778781399280215 0 0 0
155 1 8.796463566546702 7.037170853237361 5.277878139928022 0 0 0
156 1 12.315048993165384 7.037170853237361 5.277878139928022 0 0 0
157 1 1.759292713309342 10.555756279856041 5.2778781399280215 0 0 0
158 1 5.277878139928022 10.555756279856041 5.277878139928022 0 0 0
159 1 8.796463566546704 10.555756279856041 5.277878139928022 0 0 0
160 1 12.315048993165384 10.555756279856041 5.277878139928022 0 0 0
161 1 1.7592927133093403 0 8.796463566546702 0 0 0
162 1 5.277878139928021 0 8.796463566546702 0 0 0
163 1 8.796463566546702 0 8.796463566546702 0 0 0
164 1 12.315048993165382 0 8.796463566546702 0 0 0
165 1 1.7592927133093408 3.5185854266186807 8.796463566546702 0 0 0
166 1 5.2778781399280215 3.5185854266186807 8.796463566546702 0 0 0
167 1 8.796463566546702 3.5185854266186807 8.796463566546702 0 0 0
168 1 12.315048993165384 3.5185854266186807 8.796463566546702 0 0 0
169 1 1.7592927133093414 7.037170853237361 8.796463566546702 0 0 0
170 1 5.277878139928022 7.037170853237361 8.796463566546702 0 0 0
171 1 8.796463566546702 7.037170853237361 8.796463566546702 0 0 0
172 1 12.315048993165384 7.037170853237361 8.796463566546704 0 0 0
173 1 1.759292713309342 10.555756279856041 8.796463566546702 0 0 0
174 1 5.277878139928022 10.555756279856041 8.796463566546702 0 0 0
175 1 8.796463566546704 10.555756279856041 8.796463566546704 0 0 0
176 1 12.315048993165384 10.555756279856041 8.796463566546704 0 0 0
177 1 1.7592927133093403 0 12.315048993165382 0 0 0
178 1 5.277878139928021 0 12.315048993165382 0 0 0
179 1 8.796463566546702 0 12.315048993165384 0 0 0
180 1 12.315048993165382 0 12.315048993165384 0 0 0
181 1 1.7592927133093408 3.5185854266186807 12.315048993165382 0 0 0
182 1 5.2778781399280215 3.5185854266186807 12.315048993165384 0 0 0
183 1 8.796463566546702 3.5185854266186807 12.315048993165384 0 0 0
184 1 12.315048993165384 3.5185854266186807 12.315048993165384 0 0 0
185 1 1.7592927133093414 7.037170853237361 12.315048993165384 0 0 0
186 1 5.277878139928022 7.037170853237361 12.315048993165384 0 0 0
187 1 8.796463566546702 7.037170853237361 12.315048993165384 0 0 0
188 1 12.315048993165384 7.037170853237361 12.315048993165384 0 0 0
189 1 1.759292713309342 10.555756279856041 12.315048993165384 0 0 0
190 1 5.277878139928022 10.555756279856041 12.315048993165384 0 0 0
191 1 8.796463566546704 10.555756279856041 12.315048993165384 0 0 0
192 1 12.315048993165384 10.555756279856041 12.315048993165384 0 0 0
193 1 1.7592927133093406 1.7592927133093403 2.5e-16 0 0 0
194 1 5.2778781399280215 1.7592927133093403 5e-16 0 0 0
195 1 8.796463566546702 1.7592927133093403 7.500000000000001e-16 0 0 0
196 1 12.315048993165382 1.7592927133093403 1e-15 0 0 0
197 1 1.759292713309341 5.277878139928021 5e-16 0 0 0
198 1 5.2778781399280215 5.277878139928021 7.500000000000001e-16 0 0 0
199 1 8.796463566546702 5.277878139928021 1e-15 0 0 0
200 1 12.315048993165384 5.277878139928021 1.2500000000000002e-15 0 0 0
201 1 1.7592927133093417 8.796463566546702 7.500000000000002e-16 0 0 0
202 1 5.277878139928022 8.796463566546702 1e-15 0 0 0
203 1 8.796463566546702 8.796463566546702 1.2500000000000002e-15 0 0 0
204 1 12.315048993165384 8.796463566546702 1.5000000000000001e-15 0 0 0
205 1 1.7592927133093421 12.315048993165382 1e-15 0 0 0
206 1 5.277878139928022 12.315048993165382 1.25e-15 0 0 0
207 1 8.796463566546704 12.315048993165382 1.5000000000000001e-15 0 0 0
208 1 12.315048993165384 12.315048993165382 1.75e-15 0 0 0
209 1 1.7592927133093406 1.7592927133093403 3.518585426618681 0 0 0
210 1 5.2778781399280215 1.7592927133093403 3.518585426618681 0 0 0
211 1 8.796463566546702 1.7592927133093403 3.5185854266186816 0 0 0
212 1 12.315048993165382 1.7592927133093403 3.5185854266186816 0 0 0
213 1 1.759292713309341 5.277878139928021 3.518585426618681 0 0 0
214 1 5.2778781399280215 5.277878139928021 3.5185854266186816 0 0 0
215 1 8.796463566546702 5.277878139928021 3.5185854266186816 0 0 0
216 1 12.315048993165384 5.277878139928021 3.518585426618682 0 0 0
217 1 1.7592927133093417 8.796463566546702 3.5185854266186816 0 0 0
218 1 5.277878139928022 8.796463566546702 3.5185854266186816 0 0 0
219 1 8.796463566546702 8.796463566546702 3.518585426618682 0 0 0
220 1 12.315048993165384 8.796463566546702 3.518585426618682 0 0 0
221 1 1.7592927133093421 12.315048993165382 3.5185854266186816 0 0 0
222 1 5.277878139928022 12.315048993165382 3.518585426618682 0 0 0
223 1 8.796463566546704 12.315048993165382 3.518585426618682 0 0 0
224 1 12.315048993165384 12.315048993165382 3.5185854266186825 0 0 0
225 1 1.7592927133093406 1.7592927133093403 7.037170853237361 0 0 0
226 1 5.2778781399280215 1.7592927133093403 7.037170853237362 0 0 0
227 1 8.796463566546702 1.7592927133093403 7.037170853237362 0 0 0
228 1 12.315048993165382 1.7592927133093403 7.037170853237362 0 0 0
229 1 1.759292713309341 5.277878139928021 7.037170853237362 0 0 0
230 1 5.2778781399280215 5.277878139928021 7.037170853237362 0 0 0
231 1 8.796463566546702 5.277878139928021 7.037170853237362 0 0 0
232 1 12.315048993165384 5.277878139928021 7.037170853237362 0 0 0
233 1 1.7592927133093417 8.796463566546702 7.037170853237362 0 0 0
234 1 5.277878139928022 8.796463566546702 7.037170853237362 0 0 0
235 1 8.796463566546702 8.796463566546702 7.037170853237362 0 0 0
236 1 12.315048993165384 8.796463566546702 7.037170853237363 0 0 0
237 1 1.7592927133093421 12.315048993165382 7.037170853237362 0 0 0
238 1 5.277878139928022 12.315048993165382 7.037170853237362 0 0 0
239 1 8.796463566546704 12.315048993165382 7.037170853237363 0 0 0
240 1 12.315048993165384 12.315048993165382 7.037170853237363 0 0 0
241 1 1.7592927133093406 1.7592927133093403 10.555756279856043 0 0 0
242 1 5.2778781399280215 1.7592927133093403 10.555756279856043 0 0 0
243 1 8.796463566546702 1.7592927133093403 10.555756279856043 0 0 0
244 1 12.315048993165382 1.7592927133093403 10.555756279856043 0 0 0
245 1 1.759292713309341 5.277878139928021 10.555756279856043 0 0 0
246 1 5.2778781399280215 5.277878139928021 10.555756279856043 0 0 0
247 1 8.796463566546702 5.277878139928021 10.555756279856043 0 0 0
248 1 12.315048993165384 5.277878139928021 10.555756279856043 0 0 0
249 1 1.7592927133093417 8.796463566546702 10.555756279856043 0 0 0
250 1 5.277878139928022 8.796463566546702 10.555756279856043 0 0 0
251 1 8.796463566546702 8.796463566546702 10.555756279856043 0 0 0
252 1 12.315048993165384 8.796463566546702 10.555756279856043 0 0 0
253 1 1.7592927133093421 12.315048993165382 10.555756279856043 0 0 0
254 1 5.277878139928022 12.315048993165382 10.555756279856043 0 0 0
255 1 8.796463566546704 12.315048993165382 10.555756279856043 0 0 0
256 1 12.315048993165384 12.315048993165382 10.555756279856043 0 0 0

Velocities

1 0 0 0
2 0 0 0
3 0 0 0
4 0 0 0
5 0 0 0
6 0 0 0
7 0 0 0
8 0 0 0
9 0 0 0
10 0 0 0
11 0 0 0
12 0 0 0
13 0 0 0
14 0 0 0
15 0 0 0
16 0 0 0
17 0 0 0
18 0 0 0
19 0 0 0
20 0 0 0
21 0 0 0
22 0 0 0
23 0 0 0
24 0 0 0
25 0 0 0
26 0 0 0
27 0 0 0
28 0 0 0
29 0 0 0
30 0 0 0
31 0 0 0
32 0 0 0
33 0 0 0
34 0 0 0
35 0 0 0
36 0 0 0
37 0 0 0
38 0 0 0
39 0 0 0
40 0 0 0
41 0 0 0
42 0 0 0
43 0 0 0
44 0 0 0
45 0 0 0
46 0 0 0
47 0 0 0
48 0 0 0
49 0 0 0
50 0 0 0
51 0 0 0
52 0 0 0
53 0 0 0
54 0 0 0
55 0 0 0
56 0 0 0
57 0 0 0
58 0 0 0
59 0 0 0
60 0 0 0
61 0 0 0
62 0 0 0
63 0 0 0
64 0 0 0
65 0 0 0
66 0 0 0
67 0 0 0
68 0 0 0
69 0 0 0
70 0 0 0
71 0 0 0
72 0 0 0
73 0 0 0
74 0 0 0
75 0 0 0
76 0 0 0
77 0 0 0
78 0 0 0
79 0 0 0
80 0 0 0
81 0 0 0
82 0 0 0
83 0 0 0
84 0 0 0
85 0 0 0
86 0 0 0
87 0 0 0
88 0 0 0
89 0 0 0
90 0 0 0
91 0 0 0
92 0 0 0
93 0 0 0
94 0 0 0
95 0 0 0
96 0 0 0
97 0 0 0
98 0 0 0
99 0 0 0
100 0 0 0
101 0 0 0
102 0 0 0
103 0 0 0
104 0 0 0
105 0 0 0
106 0 0 0
107 0 0 0
108 0 0 0
109 0 0 0
110 0 0 0
111 0 0 0
112 0 0 0
113 0 0 0
114 0 0 0
115 0 0 0
116 0 0 0
117 0 0 0
118 0 0 0
119 0 0 0
120 0 0 0
121 0 0 0
122 0 0 0
123 0 0 0
124 0 0 0
125 0 0 0
126 0 0 0
127 0 0 0
128 0 0 0
129 0 0 0
130 0 0 0
131 0 0 0
132 0 0 0
133 0 0 0
134 0 0 0
135 0 0 0
136 0 0 0
137 0 0 0
138 0 0 0
139 0 0 0
140 0 0 0
141 0 0 0
142 0 0 0
143 0 0 0
144 0 0 0
145 0 0 0
146 0 0 0
147 0 0 0
148 0 0 0
149 0 0 0
150 0 0 0
151 0 0 0
152 0 0 0
153 0 0 0
154 0 0 0
155 0 0 0
156 0 0 0
157 0 0 0
158 0 0 0
159 0 0 0
160 0 0 0
161 0 0 0
162 0 0 0
163 0 0 0
164 0 0 0
165 0 0 0
166 0 0 0
167 0 0 0
168 0 0 0
169 0 0 0
170 0 0 0
171 0 0 0
172 0 0 0
173 0 0 0
174 0 0 0
175 0 0 0
176 0 0 0
177 0 0 0
178 0 0 0
179 0 0 0
180 0 0 0
181 0 0 0
182 0 0 0
183 0 0 0
184 0 0 0
185 0 0 0
186 0 0 0
187 0 0 0
188 0 0 0
189 0 0 0
190 0 0 0
191 0 0 0
192 0 0 0
193 0 0 0
194 0 0 0
195 0 0 0
196 0 0 0
197 0 0 0
198 0 0 0
199 0 0 0
200 0 0 0
201 0 0 0
202 0 0 0
203 0 0 0
204 0 0 0
205 0 0 0
206 0 0 0
207 0 0 0
208 0 0 0
209 0 0 0
210 0 0 0
211 0 0 0
212 0 0 0
213 0 0 0
214 0 0 0
215 0 0 0
216 0 0 0
217 0 0 0
218 0 0 0
219 0 0 0
220 0 0 0
221 0 0 0
222 0 0 0
223 0 0 0
224 0 0 0
225 0 0 0
226 0 0 0
227 0 0 0
228 0 0 0
229 0 0 0
230 0 0 0
231 0 0 0
232 0 0 0
233 0 0 0
234 0 0 0
235 0 0 0
236 0 0 0
237 0 0 0
238 0 0 0
239 0 0 0
240 0 0 0
241 0 0 0
242 0 0 0
243 0 0 0
244 0 0 0
245 0 0 0
246 0 0 0
247 0 0 0
248 0 0 0
249 0 0 0
250 0 0 0
251 0 0 0
252 0 0 0
253 0 0 0
254 0 0 0
255 0 0 0
256 0 0 0
