LAMMPS data file via write_data, version 19 Nov 2024, timestep = 0, units = metal

108 atoms
1 atom types

0 10.555756279856043 xlo xhi
0 10.555756279856041 ylo yhi
0 10.555756279856043 zlo zhi

Masses

1 58.69

Atoms # atomic

1 1 0 0 0 0 0 0
2 1 3.5185854266186767 0 3.33333333333333e-16 0 0 0
3 1 7.037170853237364 0 6.66666666666667e-16 0 0 0
4 1 6.66666666666666e-16 3.5185854266186767 3.33333333333333e-16 0 0 0
5 1 3.518585426618677 3.5185854266186767 6.66666666666666e-16 0 0 0
6 1 7.037170853237365 3.5185854266186767 1e-15 0 0 0
7 1 1.333333333333334e-15 7.037170853237364 6.66666666666667e-16 0 0 0
8 1 3.518585426618678 7.037170853237364 1e-15 0 0 0
9 1 7.037170853237365 7.037170853237364 1.333333333333334e-15 0 0 0
10 1 0 0 3.5185854266186767 0 0 0
11 1 3.5185854266186767 0 3.518585426618677 0 0 0
12 1 7.037170853237364 0 3.518585426618677 0 0 0
13 1 6.66666666666666e-16 3.5185854266186767 3.518585426618677 0 0 0
14 1 3.518585426618677 3.5185854266186767 3.518585426618677 0 0 0
15 1 7.037170853237365 3.5185854266186767 3.5185854266186776 0 0 0
16 1 1.333333333333334e-15 7.037170853237364 3.518585426618677 0 0 0
17 1 3.518585426618678 7.037170853237364 3.5185854266186776 0 0 0
18 1 7.037170853237365 7.037170853237364 3.518585426618678 0 0 0
19 1 0 0 7.037170853237364 0 0 0
20 1 3.5185854266186767 0 7.037170853237364 0 0 0
21 1 7.037170853237364 0 7.037170853237365 0 0 0
22 1 6.66666666666666e-16 3.5185854266186767 7.037170853237364 0 0 0
23 1 3.518585426618677 3.5185854266186767 7.037170853237365 0 0 0
24 1 7.037170853237365 3.5185854266186767 7.037170853237365 0 0 0
25 1 1.333333333333334e-15 7.037170853237364 7.037170853237365 0 0 0
26 1 3.518585426618678 7.037170853237364 7.037170853237365 0 0 0
27 1 7.037170853237365 7.037170853237364 7.037170853237365 0 0 0
28 1 3.33333333333334e-16 1.7592927133093437 1.7592927133093437 0 0 0
29 1 3.518585426618677 1.7592927133093437 1.7592927133093441 0 0 0
30 1 7.037170853237364 1.7592927133093437 1.7592927133093443 0 0 0
31 1 1e-15 5.277878139928021 1.7592927133093441 0 0 0
32 1 3.5185854266186776 5.277878139928021 1.7592927133093443 0 0 0
33 1 7.037170853237365 5.277878139928021 1.7592927133093448 0 0 0
34 1 1.6666666666666662e-15 8.796463566546699 1.7592927133093443 0 0 0
35 1 3.5185854266186785 8.796463566546699 1.7592927133093448 0 0 0
36 1 7.037170853237366 8.796463566546699 1.759292713309345 0 0 0
37 1 3.33333333333334e-16 1.7592927133093437 5.277878139928021 0 0 0
38 1 3.518585426618677 1.7592927133093437 5.2778781399280215 0 0 0
39 1 7.037170853237364 1.7592927133093437 5.2778781399280215 0 0 0
40 1 1e-15 5.277878139928021 5.2778781399280215 0 0 0
41 1 3.5185854266186776 5.277878139928021 5.2778781399280215 0 0 0
42 1 7.037170853237365 5.277878139928021 5.2778781399280215 0 0 0
43 1 1.6666666666666662e-15 8.796463566546699 5.2778781399280215 0 0 0
44 1 3.5185854266186785 8.796463566546699 5.2778781399280215 0 0 0
45 1 7.037170853237366 8.796463566546699 5.277878139928022 0 0 0
46 1 3.33333333333334e-16 1.7592927133093437 8.796463566546699 0 0 0
47 1 3.518585426618677 1.7592927133093437 8.796463566546699 0 0 0
48 1 7.037170853237364 1.7592927133093437 8.796463566546699 0 0 0
49 1 1e-15 5.277878139928021 8.796463566546699 0 0 0
50 1 3.5185854266186776 5.277878139928021 8.796463566546699 0 0 0
51 1 7.037170853237365 5.277878139928021 8.796463566546699 0 0 0
52 1 1.6666666666666662e-15 8.796463566546699 8.796463566546699 0 0 0
53 1 3.5185854266186785 8.796463566546699 8.796463566546699 0 0 0
54 1 7.037170853237366 8.796463566546699 8.796463566546699 0 0 0
55 1 1.7592927133093437 0 1.7592927133093437 0 0 0
56 1 5.277878139928021 0 1.7592927133093441 0 0 0
57 1 8.796463566546699 0 1.7592927133093443 0 0 0
58 1 1.7592927133093443 3.5185854266186767 1.7592927133093441 0 0 0
59 1 5.2778781399280215 3.5185854266186767 1.7592927133093443 0 0 0
60 1 8.796463566546699 3.5185854266186767 1.7592927133093448 0 0 0
61 1 1.759292713309345 7.037170853237364 1.7592927133093443 0 0 0
62 1 5.277878139928022 7.037170853237364 1.7592927133093448 0 0 0
63 1 8.796463566546699 7.037170853237364 1.759292713309345 0 0 0
64 1 1.7592927133093437 0 5.277878139928021 0 0 0
65 1 5.277878139928021 0 5.2778781399280215 0 0 0
66 1 8.796463566546699 0 5.2778781399280215 0 0 0
67 1 1.7592927133093443 3.5185854266186767 5.2778781399280215 0 0 0
68 1 5.2778781399280215 3.5185854266186767 5.2778781399280215 0 0 0
69 1 8.796463566546699 3.5185854266186767 5.2778781399280215 0 0 0
70 1 1.759292713309345 7.037170853237364 5.2778781399280215 0 0 0
71 1 5.277878139928022 7.037170853237364 5.2778781399280215 0 0 0
72 1 8.796463566546699 7.037170853237364 5.277878139928022 0 0 0
73 1 1.7592927133093437 0 8.796463566546699 0 0 0
74 1 5.277878139928021 0 8.796463566546699 0 0 0
75 1 8.796463566546699 0 8.796463566546699 0 0 0
76 1 1.7592927133093443 3.5185854266186767 8.796463566546699 0 0 0
77 1 5.2778781399280215 3.5185854266186767 8.796463566546699 0 0 0
78 1 8.796463566546699 3.5185854266186767 8.796463566546699 0 0 0
79 1 1.759292713309345 7.037170853237364 8.796463566546699 0 0 0
80 1 5.277878139928022 7.037170853237364 8.796463566546699 0 0 0
81 1 8.796463566546699 7.037170853237364 8.796463566546699 0 0 0
82 1 1.759292713309344 1.7592927133093437 3.33333333333334e-16 0 0 0
83 1 5.277878139928021 1.7592927133093437 6.66666666666667e-16 0 0 0
84 1 8.796463566546699 1.7592927133093437 1e-15 0 0 0
85 1 1.7592927133093446 5.277878139928021 6.66666666666667e-16 0 0 0
86 1 5.2778781399280215 5.277878139928021 1e-15 0 0 0
87 1 8.796463566546699 5.277878139928021 1.333333333333333e-15 0 0 0
88 1 1.7592927133093452 8.796463566546699 1e-15 0 0 0
89 1 5.277878139928022 8.796463566546699 1.333333333333333e-15 0 0 0
90 1 8.7964635665467 8.796463566546699 1.6666666666666662e-15 0 0 0
91 1 1.759292713309344 1.7592927133093437 3.518585426618677 0 0 0
92 1 5.277878139928021 1.7592927133093437 3.518585426618677 0 0 0
93 1 8.796463566546699 1.7592927133093437 3.5185854266186776 0 0 0
94 1 1.7592927133093446 5.277878139928021 3.518585426618677 0 0 0
95 1 5.2778781399280215 5.277878139928021 3.5185854266186776 0 0 0
96 1 8.796463566546699 5.277878139928021 3.518585426618678 0 0 0
97 1 1.7592927133093452 8.796463566546699 3.5185854266186776 0 0 0
98 1 5.277878139928022 8.796463566546699 3.518585426618678 0 0 0
99 1 8.7964635665467 8.796463566546699 3.5185854266186785 0 0 0
100 1 1.759292713309344 1.7592927133093437 7.037170853237364 0 0 0
101 1 5.277878139928021 1.7592927133093437 7.037170853237365 0 0 0
102 1 8.796463566546699 1.7592927133093437 7.037170853237365 0 0 0
103 1 1.7592927133093446 5.277878139928021 7.037170853237365 0 0 0
104 1 5.2778781399280215 5.277878139928021 7.037170853237365 0 0 0
105 1 8.796463566546699 5.277878139928021 7.037170853237365 0 0 0
106 1 1.7592927133093452 8.796463566546699 7.037170853237365 0 0 0
107 1 5.277878139928022 8.796463566546699 7.037170853237365 0 0 0
108 1 8.7964635665467 8.796463566546699 7.037170853237366 0 0 0

Velocities

1 0 0 0
2 0 0 0
3 0 0 0
4 0 0 0
5 0 0 0
6 0 0 0
7 0 0 0
8 0 0 0
9 0 0 0
10 0 0 0
11 0 0 0
12 0 0 0
13 0 0 0
14 0 0 0
15 0 0 0
16 0 0 0
17 0 0 0
18 0 0 0
19 0 0 0
20 0 0 0
21 0 0 0
22 0 0 0
23 0 0 0
24 0 0 0
25 0 0 0
26 0 0 0
27 0 0 0
28 0 0 0
29 0 0 0
30 0 0 0
31 0 0 0
32 0 0 0
33 0 0 0
34 0 0 0
35 0 0 0
36 0 0 0
37 0 0 0
38 0 0 0
39 0 0 0
40 0 0 0
41 0 0 0
42 0 0 0
43 0 0 0
44 0 0 0
45 0 0 0
46 0 0 0
47 0 0 0
48 0 0 0
49 0 0 0
50 0 0 0
51 0 0 0
52 0 0 0
53 0 0 0
54 0 0 0
55 0 0 0
56 0 0 0
57 0 0 0
58 0 0 0
59 0 0 0
60 0 0 0
61 0 0 0
62 0 0 0
63 0 0 0
64 0 0 0
65 0 0 0
66 0 0 0
67 0 0 0
68 0 0 0
69 0 0 0
70 0 0 0
71 0 0 0
72 0 0 0
73 0 0 0
74 0 0 0
75 0 0 0
76 0 0 0
77 0 0 0
78 0 0 0
79 0 0 0
80 0 0 0
81 0 0 0
82 0 0 0
83 0 0 0
84 0 0 0
85 0 0 0
86 0 0 0
87 0 0 0
88 0 0 0
89 0 0 0
90 0 0 0
91 0 0 0
92 0 0 0
93 0 0 0
94 0 0 0
95 0 0 0
96 0 0 0
97 0 0 0
98 0 0 0
99 0 0 0
100 0 0 0
101 0 0 0
102 0 0 0
103 0 0 0
104 0 0 0
105 0 0 0
106 0 0 0
107 0 0 0
108 0 0 0
