LAMMPS data file via write_data, version 19 Nov 2024, timestep = 0, units = metal

32 atoms
1 atom types

0 7.037170853237362 xlo xhi
0 7.037170853237361 ylo yhi
0 7.037170853237361 zlo zhi

Masses

1 58.69

Atoms # atomic

1 1 0 0 0 0 0 0
2 1 3.5185854266186807 0 0 0 0 0
3 1 5e-16 3.5185854266186807 0 0 0 0
4 1 3.518585426618681 3.5185854266186807 0 0 0 0
5 1 0 0 3.5185854266186807 0 0 0
6 1 3.5185854266186807 0 3.5185854266186807 0 0 0
7 1 5e-16 3.5185854266186807 3.5185854266186807 0 0 0
8 1 3.518585426618681 3.5185854266186807 3.5185854266186807 0 0 0
9 1 2.5e-16 1.7592927133093403 1.7592927133093403 0 0 0
10 1 3.518585426618681 1.7592927133093403 1.7592927133093403 0 0 0
11 1 7.500000000000001e-16 5.277878139928021 1.7592927133093403 0 0 0
12 1 3.5185854266186816 5.277878139928021 1.7592927133093403 0 0 0
13 1 2.5e-16 1.7592927133093403 5.277878139928021 0 0 0
14 1 3.518585426618681 1.7592927133093403 5.277878139928021 0 0 0
15 1 7.500000000000001e-16 5.277878139928021 5.277878139928021 0 0 0
16 1 3.5185854266186816 5.277878139928021 5.277878139928021 0 0 0
17 1 1.7592927133093403 0 1.7592927133093403 0 0 0
18 1 5.277878139928021 0 1.7592927133093403 0 0 0
19 1 1.7592927133093408 3.5185854266186807 1.7592927133093403 0 0 0
20 1 5.2778781399280215 3.5185854266186807 1.7592927133093403 0 0 0
21 1 1.7592927133093403 0 5.277878139928021 0 0 0
22 1 5.277878139928021 0 5.277878139928021 0 0 0
23 1 1.7592927133093408 3.5185854266186807 5.277878139928021 0 0 0
24 1 5.2778781399280215 3.5185854266186807 5.277878139928021 0 0 0
25 1 1.7592927133093406 1.7592927133093403 0 0 0 0
26 1 5.2778781399280215 1.7592927133093403 0 0 0 0
27 1 1.759292713309341 5.277878139928021 0 0 0 0
28 1 5.2778781399280215 5.277878139928021 0 0 0 0
29 1 1.7592927133093406 1.7592927133093403 3.5185854266186807 0 0 0
30 1 5.2778781399280215 1.7592927133093403 3.5185854266186807 0 0 0
31 1 1.759292713309341 5.277878139928021 3.5185854266186807 0 0 0
32 1 5.2778781399280215 5.277878139928021 3.5185854266186807 0 0 0

Velocities

1 0 0 0
2 0 0 0
3 0 0 0
4 0 0 0
5 0 0 0
6 0 0 0
7 0 0 0
8 0 0 0
9 0 0 0
10 0 0 0
11 0 0 0
12 0 0 0
13 0 0 0
14 0 0 0
15 0 0 0
16 0 0 0
17 0 0 0
18 0 0 0
19 0 0 0
20 0 0 0
21 0 0 0
22 0 0 0
23 0 0 0
24 0 0 0
25 0 0 0
26 0 0 0
27 0 0 0
28 0 0 0
29 0 0 0
30 0 0 0
31 0 0 0
32 0 0 0
